 argument  1 = ch2_321g_b3lyp.nw



============================== echo of input deck ==============================
echo
start molecule

title "DFT B3LYP calculation on CH2 with 3-21g basis"

geometry units au
  C    0   0     0
  H    0  1.87  -0.82
  symmetry c2v
end

basis
  C library 3-21g
  H library 3-21g
end

dft
  xc b3lyp
end

task dft
================================================================================


                                         
                                         


              Northwest Computational Chemistry Package (NWChem) 6.1
              ------------------------------------------------------


                    Environmental Molecular Sciences Laboratory
                       Pacific Northwest National Laboratory
                                Richland, WA 99352

                              Copyright (c) 1994-2010
                       Pacific Northwest National Laboratory
                            Battelle Memorial Institute

             NWChem is an open-source computational chemistry package
                        distributed under the terms of the
                      Educational Community License (ECL) 2.0
             A copy of the license is included with this distribution
                              in the LICENSE.TXT file

                                  ACKNOWLEDGMENT
                                  --------------

            This software and its documentation were developed at the
            EMSL at Pacific Northwest National Laboratory, a multiprogram
            national laboratory, operated for the U.S. Department of Energy
            by Battelle under Contract Number DE-AC05-76RL01830. Support
            for this work was provided by the Department of Energy Office
            of Biological and Environmental Research, Office of Basic
            Energy Sciences, and the Office of Advanced Scientific Computing.


           Job information
           ---------------

    hostname      = jmhts-MacBook-Air.local
    program       = nwchem
    date          = Fri Apr 13 13:23:01 2012

    compiled      = Sat_Mar_03_17:07:28_2012
    source        = /Users/jmht/Documents/quixote/nwchem/nwchem-src-2012-Mar-01
    nwchem branch = Development
    input         = ch2_321g_b3lyp.nw
    prefix        = molecule.
    data base     = ./molecule.db
    status        = startup
    nproc         =        1
    time left     =     -1s



           Memory information
           ------------------

    heap     =   13107201 doubles =    100.0 Mbytes
    stack    =   13107201 doubles =    100.0 Mbytes
    global   =   26214400 doubles =    200.0 Mbytes (distinct from heap & stack)
    total    =   52428802 doubles =    400.0 Mbytes
    verify   = yes
    hardfail = no 


           Directory information
           ---------------------

  0 permanent = .
  0 scratch   = .




                                NWChem Input Module
                                -------------------


                   DFT B3LYP calculation on CH2 with 3-21g basis
                   ---------------------------------------------
 Turning off AUTOSYM since
 SYMMETRY directive was detected!


          ------
          auto-z
          ------


                             Geometry "geometry" -> ""
                             -------------------------

 Output coordinates in a.u. (scale by  1.000000000 to convert to a.u.)

  No.       Tag          Charge          X              Y              Z
 ---- ---------------- ---------- -------------- -------------- --------------
    1 C                    6.0000     0.00000000     0.00000000     0.20500000
    2 H                    1.0000     0.00000000     1.87000000    -0.61500000
    3 H                    1.0000     0.00000000    -1.87000000    -0.61500000

      Atomic Mass 
      ----------- 

      C                 12.000000
      H                  1.007825


 Effective nuclear repulsion energy (a.u.)       6.1442982489

            Nuclear Dipole moment (a.u.) 
            ----------------------------
        X                 Y               Z
 ---------------- ---------------- ----------------
     0.0000000000     0.0000000000     0.0000000000

      Symmetry information
      --------------------

 Group name             C2v       
 Group number             16
 Group order               4
 No. of unique centers     2

      Symmetry unique atoms

     1    2



                                Z-matrix (autoz)
                                -------- 

 Units are Angstrom for bonds and degrees for angles

      Type          Name      I     J     K     L     M      Value
      ----------- --------  ----- ----- ----- ----- ----- ----------
    1 Stretch                  1     2                       1.08052
    2 Stretch                  1     3                       1.08052
    3 Bend                     2     1     3               132.64484


            XYZ format geometry
            -------------------
     3
 geometry
 C                     0.00000000     0.00000000     0.10848134
 H                     0.00000000     0.98956146    -0.32544401
 H                     0.00000000    -0.98956146    -0.32544401

 ==============================================================================
                                internuclear distances
 ------------------------------------------------------------------------------
       center one      |      center two      | atomic units |       a.u.
 ------------------------------------------------------------------------------
    2 H                |   1 C                |     2.04189  |     2.04189
    3 H                |   1 C                |     2.04189  |     2.04189
 ------------------------------------------------------------------------------
                         number of included internuclear distances:          2
 ==============================================================================



 ==============================================================================
                                 internuclear angles
 ------------------------------------------------------------------------------
        center 1       |       center 2       |       center 3       |  degrees
 ------------------------------------------------------------------------------
    2 H                |   1 C                |   3 H                |   132.64
 ------------------------------------------------------------------------------
                            number of included internuclear angles:          1
 ==============================================================================



                      Basis "ao basis" -> "" (cartesian)
                      -----
  C (Carbon)
  ----------
            Exponent  Coefficients 
       -------------- ---------------------------------------------------------
  1 S  1.72256000E+02  0.061767
  1 S  2.59109000E+01  0.358794
  1 S  5.53335000E+00  0.700713

  2 S  3.66498000E+00 -0.395897
  2 S  7.70545000E-01  1.215840

  3 P  3.66498000E+00  0.236460
  3 P  7.70545000E-01  0.860619

  4 S  1.95857000E-01  1.000000

  5 P  1.95857000E-01  1.000000

  H (Hydrogen)
  ------------
            Exponent  Coefficients 
       -------------- ---------------------------------------------------------
  1 S  5.44717800E+00  0.156285
  1 S  8.24547000E-01  0.904691

  2 S  1.83192000E-01  1.000000



 Summary of "ao basis" -> "" (cartesian)
 ------------------------------------------------------------------------------
       Tag                 Description            Shells   Functions and Types
 ---------------- ------------------------------  ------  ---------------------
 C                           3-21g                   5        9   3s2p
 H                           3-21g                   2        2   2s



                                 NWChem DFT Module
                                 -----------------


                   DFT B3LYP calculation on CH2 with 3-21g basis


  Caching 1-el integrals 

            General Information
            -------------------
          SCF calculation type: DFT
          Wavefunction type:  closed shell.
          No. of atoms     :     3
          No. of electrons :     8
           Alpha electrons :     4
            Beta electrons :     4
          Charge           :     0
          Spin multiplicity:     1
          Use of symmetry is: on ; symmetry adaption is: on 
          Maximum number of iterations:  30
          AO basis - number of functions:    13
                     number of shells:     9
          Convergence on energy requested: 1.00D-06
          Convergence on density requested: 1.00D-05
          Convergence on gradient requested: 5.00D-04

              XC Information
              --------------
                         B3LYP Method XC Potential
                     Hartree-Fock (Exact) Exchange  0.200          
                        Slater Exchange Functional  0.800 local    
                    Becke 1988 Exchange Functional  0.720 non-local
              Lee-Yang-Parr Correlation Functional  0.810          
                  VWN I RPA Correlation Functional  0.190 local    

             Grid Information
             ----------------
          Grid used for XC integration:  medium    
          Radial quadrature: Mura-Knowles        
          Angular quadrature: Lebedev. 
          Tag              B.-S. Rad. Rad. Pts. Rad. Cut. Ang. Pts.
          ---              ---------- --------- --------- ---------
          C                   0.70       49           5.0       434
          H                   0.35       45           7.0       434
          Grid pruning is: on 
          Number of quadrature shells:    94
          Spatial weights used:  Erf1

          Convergence Information
          -----------------------
          Convergence aids based upon iterative change in 
          total energy or number of iterations. 
          Levelshifting, if invoked, occurs when the 
          HOMO/LUMO gap drops below (HL_TOL): 1.00D-02
          DIIS, if invoked, will attempt to extrapolate 
          using up to (NFOCK): 10 stored Fock matrices.

                    Damping( 0%)  Levelshifting(0.5)       DIIS
                  --------------- ------------------- ---------------
          dE  on:    start            ASAP                start   
          dE off:    2 iters         30 iters            30 iters 


      Screening Tolerance Information
      -------------------------------
          Density screening/tol_rho: 1.00D-10
          AO Gaussian exp screening on grid/accAOfunc:  14
          CD Gaussian exp screening on grid/accCDfunc:  20
          XC Gaussian exp screening on grid/accXCfunc:  20
          Schwarz screening/accCoul: 1.00D-08


      Superposition of Atomic Density Guess
      -------------------------------------

 Sum of atomic energies:         -38.45615938

      Non-variational initial energy
      ------------------------------

 Total energy =     -38.523335
 1-e energy   =     -63.008753
 2-e energy   =      18.341120
 HOMO         =      -0.175199
 LUMO         =      -0.117255


      Symmetry analysis of molecular orbitals - initial
      -------------------------------------------------

  Numbering of irreducible representations: 

     1 a1          2 a2          3 b1          4 b2      

  Orbital symmetries:

     1 a1          2 a1          3 b2          4 a1          5 b1      
     6 a1          7 b2          8 a1          9 b1         10 b2      
    11 a1         12 b2         13 a1      

   Time after variat. SCF:      0.1
   Time prior to 1st pass:      0.1

 #quartets = 6.670D+02 #integrals = 1.513D+03 #direct =  0.0% #cached =100.0%


 Integral file          = ./molecule.aoints.0
 Record size in doubles =  65536        No. of integs per rec  =  43688
 Max. records in memory =      2        Max. records in file   = 147173
 No. of bits per label  =      8        No. of bits per value  =     64


 Grid_pts file          = ./molecule.gridpts.0
 Record size in doubles =  12289        No. of grid_pts per rec  =   3070
 Max. records in memory =     16        Max. recs in file   =    784864


           Memory utilization after 1st SCF pass: 
           Heap Space remaining (MW):       12.78            12778368
          Stack Space remaining (MW):       13.11            13107011

   convergence    iter        energy       DeltaE   RMS-Dens  Diis-err    time
 ---------------- ----- ----------------- --------- --------- ---------  ------
 d= 0,ls=0.0,diis     1    -38.8746435786 -4.50D+01  2.46D-02  1.02D-01     0.2
 d= 0,ls=0.0,diis     2    -38.8851914217 -1.05D-02  9.42D-03  1.82D-02     0.2
 d= 0,ls=0.0,diis     3    -38.8872577036 -2.07D-03  3.06D-03  2.68D-03     0.2
 d= 0,ls=0.0,diis     4    -38.8876345541 -3.77D-04  2.65D-04  3.43D-06     0.2
 d= 0,ls=0.0,diis     5    -38.8876352147 -6.61D-07  5.40D-05  1.93D-08     0.2
 d= 0,ls=0.0,diis     6    -38.8876352245 -9.82D-09  4.38D-06  1.55D-10     0.3


         Total DFT energy =      -38.887635224491
      One electron energy =      -63.613972700907
           Coulomb energy =       24.635014928076
    Exchange-Corr. energy =       -6.052975700546
 Nuclear repulsion energy =        6.144298248886

 Numeric. integr. density =        8.000000105513

     Total iterative time =      0.2s



                  Occupations of the irreducible representations
                  ----------------------------------------------

                     irrep           alpha         beta
                     --------     --------     --------
                     a1                3.0          3.0
                     a2                0.0          0.0
                     b1                0.0          0.0
                     b2                1.0          1.0


                       DFT Final Molecular Orbital Analysis
                       ------------------------------------

 Vector    1  Occ=2.000000D+00  E=-1.016259D+01  Symmetry=a1
              MO Center=  4.5D-19,  9.1D-18,  1.1D-01, r^2= 2.8D-02
   Bfn.  Coefficient  Atom+Function         Bfn.  Coefficient  Atom+Function  
  ----- ------------  ---------------      ----- ------------  ---------------
     1      0.985091  1 C  s          

 Vector    2  Occ=2.000000D+00  E=-6.588116D-01  Symmetry=a1
              MO Center=  1.9D-17,  9.7D-17, -1.8D-01, r^2= 9.2D-01
   Bfn.  Coefficient  Atom+Function         Bfn.  Coefficient  Atom+Function  
  ----- ------------  ---------------      ----- ------------  ---------------
     6      0.568420  1 C  s                  2      0.225655  1 C  s          
     1     -0.207231  1 C  s                 10      0.175962  2 H  s          
    12      0.175962  3 H  s          

 Vector    3  Occ=2.000000D+00  E=-4.543874D-01  Symmetry=b2
              MO Center= -6.2D-33, -3.1D-16, -1.2D-01, r^2= 1.2D+00
   Bfn.  Coefficient  Atom+Function         Bfn.  Coefficient  Atom+Function  
  ----- ------------  ---------------      ----- ------------  ---------------
     4      0.397197  1 C  py                10      0.247197  2 H  s          
    12     -0.247197  3 H  s                 11      0.232302  2 H  s          
    13     -0.232302  3 H  s                  8      0.204968  1 C  py         

 Vector    4  Occ=2.000000D+00  E=-1.849217D-01  Symmetry=a1
              MO Center= -2.0D-21, -1.4D-17,  4.0D-01, r^2= 9.8D-01
   Bfn.  Coefficient  Atom+Function         Bfn.  Coefficient  Atom+Function  
  ----- ------------  ---------------      ----- ------------  ---------------
     9      0.536609  1 C  pz                 5      0.458313  1 C  pz         
     6      0.434536  1 C  s          

 Vector    5  Occ=0.000000D+00  E=-1.117399D-01  Symmetry=b1
              MO Center= -1.0D-17,  7.5D-33,  1.1D-01, r^2= 1.1D+00
   Bfn.  Coefficient  Atom+Function         Bfn.  Coefficient  Atom+Function  
  ----- ------------  ---------------      ----- ------------  ---------------
     7      0.658504  1 C  px                 3      0.480956  1 C  px         

 Vector    6  Occ=0.000000D+00  E= 1.188821D-01  Symmetry=a1
              MO Center= -9.8D-18,  0.0D+00, -3.4D-01, r^2= 2.7D+00
   Bfn.  Coefficient  Atom+Function         Bfn.  Coefficient  Atom+Function  
  ----- ------------  ---------------      ----- ------------  ---------------
     6      1.716161  1 C  s                 11     -1.224549  2 H  s          
    13     -1.224549  3 H  s                  9     -0.579764  1 C  pz         
     5     -0.202590  1 C  pz         

 Vector    7  Occ=0.000000D+00  E= 2.121829D-01  Symmetry=b2
              MO Center=  1.5D-32,  2.0D-15, -3.6D-01, r^2= 2.8D+00
   Bfn.  Coefficient  Atom+Function         Bfn.  Coefficient  Atom+Function  
  ----- ------------  ---------------      ----- ------------  ---------------
    11      1.556063  2 H  s                 13     -1.556063  3 H  s          
     8     -1.438710  1 C  py                 4     -0.414149  1 C  py         

 Vector    8  Occ=0.000000D+00  E= 7.158352D-01  Symmetry=a1
              MO Center=  1.7D-16,  9.7D-16, -2.3D-01, r^2= 1.6D+00
   Bfn.  Coefficient  Atom+Function         Bfn.  Coefficient  Atom+Function  
  ----- ------------  ---------------      ----- ------------  ---------------
     9      1.018450  1 C  pz                 5     -0.850129  1 C  pz         
    10      0.459566  2 H  s                 12      0.459566  3 H  s          
     6     -0.426085  1 C  s                  2      0.160862  1 C  s          

 Vector    9  Occ=0.000000D+00  E= 7.266797D-01  Symmetry=b1
              MO Center= -3.3D-16,  2.5D-31,  1.1D-01, r^2= 1.4D+00
   Bfn.  Coefficient  Atom+Function         Bfn.  Coefficient  Atom+Function  
  ----- ------------  ---------------      ----- ------------  ---------------
     3      1.075723  1 C  px                 7     -0.977175  1 C  px         

 Vector   10  Occ=0.000000D+00  E= 7.882976D-01  Symmetry=b2
              MO Center= -3.7D-30,  6.3D-15,  4.2D-01, r^2= 1.7D+00
   Bfn.  Coefficient  Atom+Function         Bfn.  Coefficient  Atom+Function  
  ----- ------------  ---------------      ----- ------------  ---------------
     8      1.966169  1 C  py                 4     -0.773837  1 C  py         
    11     -0.616311  2 H  s                 13      0.616311  3 H  s          
    10     -0.482648  2 H  s                 12      0.482648  3 H  s          

 Vector   11  Occ=0.000000D+00  E= 8.374055D-01  Symmetry=a1
              MO Center=  1.6D-16, -8.2D-15,  4.0D-02, r^2= 1.8D+00
   Bfn.  Coefficient  Atom+Function         Bfn.  Coefficient  Atom+Function  
  ----- ------------  ---------------      ----- ------------  ---------------
    10      0.746003  2 H  s                 12      0.746003  3 H  s          
    11     -0.664856  2 H  s                 13     -0.664856  3 H  s          
     5      0.644117  1 C  pz                 9     -0.480022  1 C  pz         
     2      0.317203  1 C  s          

 Vector   12  Occ=0.000000D+00  E= 1.055889D+00  Symmetry=b2
              MO Center= -3.5D-31,  1.5D-15, -2.9D-01, r^2= 1.8D+00
   Bfn.  Coefficient  Atom+Function         Bfn.  Coefficient  Atom+Function  
  ----- ------------  ---------------      ----- ------------  ---------------
    11      1.165936  2 H  s                 13     -1.165936  3 H  s          
     8     -0.919846  1 C  py                10     -0.813407  2 H  s          
    12      0.813407  3 H  s                  4      0.800963  1 C  py         

 Vector   13  Occ=0.000000D+00  E= 1.359769D+00  Symmetry=a1
              MO Center= -1.8D-23, -8.0D-16, -3.4D-02, r^2= 1.5D+00
   Bfn.  Coefficient  Atom+Function         Bfn.  Coefficient  Atom+Function  
  ----- ------------  ---------------      ----- ------------  ---------------
     6      2.516401  1 C  s                  2     -1.680908  1 C  s          
    11     -0.959896  2 H  s                 13     -0.959896  3 H  s          
     9     -0.393450  1 C  pz                10      0.228195  2 H  s          
    12      0.228195  3 H  s          


 center of mass
 --------------
 x =   0.00000000 y =   0.00000000 z =   0.08707233

 moments of inertia (a.u.)
 ------------------
           8.208934794283           0.000000000000           0.000000000000
           0.000000000000           1.160408309283           0.000000000000
           0.000000000000           0.000000000000           7.048526485000

     Multipole analysis of the density
     ---------------------------------

     L   x y z        total         alpha         beta         nuclear
     -   - - -        -----         -----         ----         -------
     0   0 0 0     -0.000000     -4.000000     -4.000000      8.000000

     1   1 0 0     -0.000000     -0.000000     -0.000000      0.000000
     1   0 1 0      0.000000      0.000000      0.000000      0.000000
     1   0 0 1     -0.793740     -0.396870     -0.396870      0.000000

     2   2 0 0     -4.490942     -2.245471     -2.245471      0.000000
     2   1 1 0     -0.000000     -0.000000     -0.000000      0.000000
     2   1 0 1      0.000000      0.000000      0.000000      0.000000
     2   0 2 0     -4.361080     -5.677440     -5.677440      6.993800
     2   0 1 1     -0.000000     -0.000000     -0.000000      0.000000
     2   0 0 2     -7.212461     -4.110530     -4.110530      1.008600


 Parallel integral file used       1 records with       0 large values


 Task  times  cpu:        0.2s     wall:        0.4s
 Summary of allocated global arrays
-----------------------------------
  No active global arrays



                         GA Statistics for process    0
                         ------------------------------

       create   destroy   get      put      acc     scatter   gather  read&inc
calls:  158      158     3483      762     1728        0        0        0     
number of processes/call 1.00e+00 1.00e+00 1.00e+00 0.00e+00 0.00e+00
bytes total:             8.13e+05 2.42e+05 4.08e+05 0.00e+00 0.00e+00 0.00e+00
bytes remote:            0.00e+00 0.00e+00 0.00e+00 0.00e+00 0.00e+00 0.00e+00
Max memory consumed for GA by this process: 52728 bytes
MA_summarize_allocated_blocks: starting scan ...
MA_summarize_allocated_blocks: scan completed: 0 heap blocks, 0 stack blocks
MA usage statistics:

	allocation statistics:
					      heap	     stack
					      ----	     -----
	current number of blocks	         0	         0
	maximum number of blocks	        24	        51
	current total bytes		         0	         0
	maximum total bytes		   2630664	  22510112
	maximum total K-bytes		      2631	     22511
	maximum total M-bytes		         3	        23


                                NWChem Input Module
                                -------------------





                                     CITATION
                                     --------
                Please cite the following reference when publishing
                           results obtained with NWChem:

                 M. Valiev, E.J. Bylaska, N. Govind, K. Kowalski,
              T.P. Straatsma, H.J.J. van Dam, D. Wang, J. Nieplocha,
                        E. Apra, T.L. Windus, W.A. de Jong
                 "NWChem: a comprehensive and scalable open-source
                  solution for large scale molecular simulations"
                      Comput. Phys. Commun. 181, 1477 (2010)
                           doi:10.1016/j.cpc.2010.04.018

                              AUTHORS & CONTRIBUTORS
                              ----------------------
      E. J. Bylaska, W. A. de Jong, N. Govind, K. Kowalski, T. P. Straatsma,
     M. Valiev, H. J. J. van Dam, D. Wang, E. Apra, T. L. Windus, J. Hammond,
    J. Autschbach, F. Aquino, J. Mullin, P. Nichols, S. Hirata, M. T. Hackler,
   Y. Zhao, P.-D. Fan, R. J. Harrison, M. Dupuis, D. M. A. Smith, K. Glaesemann,
    J. Nieplocha, V. Tipparaju, M. Krishnan, A. Vazquez-Mayagoitia, L. Jensen,
      M. Swart, Q. Wu, T. Van Voorhis, A. A. Auer, M. Nooijen, L. D. Crosby,
        E. Brown, G. Cisneros, G. I. Fann, H. Fruchtl, J. Garza, K. Hirao,
        R. Kendall, J. A. Nichols, K. Tsemekhman, K. Wolinski, J. Anchell,
       D. Bernholdt, P. Borowski, T. Clark, D. Clerc, H. Dachsel, M. Deegan,
        K. Dyall, D. Elwood, E. Glendening, M. Gutowski, A. Hess, J. Jaffe,
        B. Johnson, J. Ju, R. Kobayashi, R. Kutteh, Z. Lin, R. Littlefield,
    X. Long, B. Meng, T. Nakajima, S. Niu, R. Peverati, L. Pollack, M. Rosing,
          G. Sandrone, M. Stave, H. Taylor, G. Thomas, J. H. van Lenthe,
                                A. Wong, Z. Zhang.

 Total times  cpu:        0.3s     wall:        0.5s
